MODEL 1
REMARK VINA RESULT:   -15.775      0.000      0.000
REMARK INTER + INTRA:         -20.027
REMARK INTER:                 -19.003
REMARK INTRA:                  -1.024
REMARK UNBOUND:                -1.024
REMARK Flexibility Score: inf
REMARK Active torsions [ 4 ] -> [ 4 ]
ROOT
ATOM      1  C1  LIG L   1      37.390  54.905  43.588  1.00  0.00     0.004 C 
ATOM      2  C2  LIG L   1      36.082  50.334  44.948  1.00  0.00     0.008 C 
ATOM      3  C3  LIG L   1      37.305  50.099  42.754  1.00  0.00    -0.004 C 
ATOM      4  C4  LIG L   1      38.265  48.988  42.529  1.00  0.00    -0.001 C 
ATOM      5  C5  LIG L   1      36.654  49.434  43.979  1.00  0.00    -0.004 C 
ATOM      6  C6  LIG L   1      35.711  51.702  44.515  1.00  0.00    -0.005 C 
ATOM      7  C7  LIG L   1      36.106  54.589  44.511  1.00  0.00    -0.004 C 
ATOM      8  C8  LIG L   1      35.689  56.189  44.947  1.00  0.00     0.012 C 
ATOM      9  C9  LIG L   1      37.553  48.094  43.784  1.00  0.00    -0.007 C 
ATOM     10 C10  LIG L   1      37.560  51.468  42.711  1.00  0.00     0.008 C 
ATOM     11 C11  LIG L   1      38.732  48.089  44.796  1.00  0.00     0.008 C 
ATOM     12 C12  LIG L   1      34.528  54.327  44.488  1.00  0.00     0.028 C 
ATOM     13 C13  LIG L   1      34.284  51.886  44.846  1.00  0.00     0.035 C 
ATOM     14 C14  LIG L   1      37.175  54.301  42.154  1.00  0.00     0.001 C 
ATOM     15 C15  LIG L   1      35.993  53.280  42.406  1.00  0.00     0.004 C 
ATOM     16 C16  LIG L   1      33.861  53.232  45.229  1.00  0.00     0.119 C 
ATOM     17 C17  LIG L   1      36.603  52.328  43.466  1.00  0.00    -0.007 C 
ATOM     18 C18  LIG L   1      34.232  55.717  45.325  1.00  0.00     0.025 C 
ENDROOT
BRANCH    4   19
ATOM     19 C19  LIG L   1      39.022  48.178  41.620  1.00  0.00    -0.007 C 
ATOM     20 C20  LIG L   1      39.349  46.716  39.531  1.00  0.00    -0.011 C 
ATOM     21 C21  LIG L   1      38.954  46.769  41.068  1.00  0.00     0.007 C 
ATOM     22 C22  LIG L   1      40.077  48.093  39.377  1.00  0.00     0.004 C 
ATOM     23 C23  LIG L   1      39.769  48.978  40.565  1.00  0.00     0.004 C 
BRANCH   20   24
ATOM     24 C24  LIG L   1      39.508  46.030  38.088  1.00  0.00     0.000 C 
ATOM     25 C25  LIG L   1      40.617  46.773  37.326  1.00  0.00     0.004 C 
ENDBRANCH   20   24
ENDBRANCH    4   19
BRANCH   16   26
ATOM     26  O1  LIG L   1      32.782  53.476  45.907  1.00  0.00    -0.391 OA
ATOM     27  H1  LIG L   1      32.682  54.455  46.025  1.00  0.00     0.210 HD
ENDBRANCH   16   26
BRANCH   18   28
ATOM     28 C26  LIG L   1      33.098  56.542  44.721  1.00  0.00    -0.044 A 
ATOM     29 C27  LIG L   1      33.170  56.906  43.376  1.00  0.00     0.004 A 
ATOM     30 C28  LIG L   1      31.986  56.969  45.452  1.00  0.00     0.004 A 
ATOM     31 C29  LIG L   1      32.183  57.700  42.804  1.00  0.00     0.000 A 
ATOM     32 C30  LIG L   1      31.005  57.742  44.877  1.00  0.00     0.000 A 
ATOM     33 C31  LIG L   1      31.070  58.085  43.555  1.00  0.00     0.000 A 
ENDBRANCH   18   28
TORSDOF 4
ENDMDL
