MODEL 1
REMARK VINA RESULT:   -13.014      0.000      0.000
REMARK INTER + INTRA:         -14.265
REMARK INTER:                 -14.156
REMARK INTRA:                  -0.109
REMARK UNBOUND:                -0.109
REMARK Flexibility Score: inf
REMARK Active torsions [ 2 ] -> [ 2 ]
ROOT
ATOM      1  O1  LIG L   1       5.271   3.301   4.635  1.00  0.00    -0.283 OA
ATOM      2  N1  LIG L   1       6.432  -3.987   2.951  1.00  0.00    -0.160 NA
ATOM      3  C1  LIG L   1       8.134  -0.217   1.431  1.00  0.00     0.001 C 
ATOM      4  N2  LIG L   1       2.236  -0.699   0.119  1.00  0.00    -0.254 NA
ATOM      5  C2  LIG L   1       5.086  -2.236   1.950  1.00  0.00     0.078 C 
ATOM      6  C3  LIG L   1       1.514   1.669   0.040  1.00  0.00     0.055 A 
ATOM      7  C4  LIG L   1       2.726  -2.842   2.158  1.00  0.00     0.076 C 
ATOM      8  C5  LIG L   1       7.621  -3.653   2.392  1.00  0.00     0.131 C 
ATOM      9  C6  LIG L   1       9.185   0.394   1.413  1.00  0.00    -0.003 C 
ATOM     10  C7  LIG L   1       6.038  -1.353   1.623  1.00  0.00     0.090 C 
ATOM     11  C8  LIG L   1       6.029   3.081   3.629  1.00  0.00     0.206 C 
ATOM     12  C9  LIG L   1       2.599   1.871   0.864  1.00  0.00     0.020 A 
ATOM     13 C10  LIG L   1       4.550   1.613   2.299  1.00  0.00     0.046 C 
ATOM     14 C11  LIG L   1       5.279   2.917   2.323  1.00  0.00     0.093 C 
ATOM     15 C12  LIG L   1       1.444   0.305  -0.394  1.00  0.00     0.124 A 
ATOM     16 Cl1  LIG L   1       9.408  -2.946   0.515  1.00  0.00    -0.111 Cl
ATOM     17 C13  LIG L   1      10.033   1.402   1.763  1.00  0.00    -0.014 C 
ATOM     18 C14  LIG L   1       7.424   3.007   3.618  1.00  0.00    -0.028 C 
ATOM     19 C15  LIG L   1       3.194  -0.519   1.061  1.00  0.00     0.077 A 
ATOM     20 C16  LIG L   1       9.762   2.498   2.613  1.00  0.00     0.116 C 
ATOM     21 C17  LIG L   1       3.443   0.930   1.372  1.00  0.00    -0.020 A 
ATOM     22 C18  LIG L   1       7.393  -1.333   1.531  1.00  0.00    -0.041 C 
ATOM     23 C19  LIG L   1       8.609   2.747   3.280  1.00  0.00    -0.090 C 
ATOM     24 C20  LIG L   1       3.683  -1.827   1.672  1.00  0.00     0.037 C 
ATOM     25  N3  LIG L   1       5.267  -3.386   2.660  1.00  0.00    -0.153 NA
ATOM     26 C21  LIG L   1       8.008  -2.603   1.621  1.00  0.00     0.149 C 
ENDROOT
BRANCH    6   27
ATOM     27 C22  LIG L   1       0.525   2.652  -0.336  1.00  0.00     0.243 C 
ATOM     28  O2  LIG L   1      -0.640   2.249  -0.559  1.00  0.00    -0.270 OA
ATOM     29  N4  LIG L   1       0.886   3.904  -0.303  1.00  0.00    -0.325 N 
ATOM     30  H1  LIG L   1       0.215   4.640  -0.563  1.00  0.00     0.145 HD
ATOM     31  H2  LIG L   1       1.843   4.157  -0.018  1.00  0.00     0.145 HD
ENDBRANCH    6   27
BRANCH    7   32
ATOM     32  N5  LIG L   1       1.389  -2.774   2.384  1.00  0.00    -0.363 N 
ATOM     33  H3  LIG L   1       0.901  -3.563   2.830  1.00  0.00     0.142 HD
ATOM     34  H4  LIG L   1       0.863  -1.932   2.109  1.00  0.00     0.142 HD
ENDBRANCH    7   32
TORSDOF 2
ENDMDL
