MODEL 1
REMARK VINA RESULT:    -6.788      0.000      0.000
REMARK INTER + INTRA:          -9.135
REMARK INTER:                  -8.970
REMARK INTRA:                  -0.165
REMARK UNBOUND:                -0.165
REMARK Flexibility Score: inf
REMARK Active torsions [ 6 ] -> [ 6 ]
ROOT
ATOM      1  N1  LIG L   1     -13.472  -6.095   5.224  1.00  0.00    -0.297 N 
ATOM      2  H1  LIG L   1     -13.409  -5.185   5.701  1.00  0.00     0.150 HD
ENDROOT
BRANCH    1    3
ATOM      3  C1  LIG L   1     -14.706  -6.742   5.196  1.00  0.00     0.110 C 
BRANCH    3    4
ATOM      4  C2  LIG L   1     -15.662  -5.880   4.464  1.00  0.00     0.054 C 
BRANCH    4    5
ATOM      5  C3  LIG L   1     -17.134  -6.237   4.684  1.00  0.00    -0.046 A 
ATOM      6  C4  LIG L   1     -19.070  -6.324   6.100  1.00  0.00     0.000 A 
ATOM      7  C5  LIG L   1     -19.777  -7.020   5.131  1.00  0.00     0.000 A 
ATOM      8  C6  LIG L   1     -17.755  -5.935   5.873  1.00  0.00     0.004 A 
ATOM      9  C7  LIG L   1     -19.141  -7.320   3.939  1.00  0.00     0.000 A 
ATOM     10  C8  LIG L   1     -17.847  -6.927   3.708  1.00  0.00     0.004 A 
ENDBRANCH    4    5
ENDBRANCH    3    4
ENDBRANCH    1    3
BRANCH    1   11
ATOM     11  C9  LIG L   1     -12.345  -6.603   4.655  1.00  0.00     0.322 C 
ATOM     12  O1  LIG L   1     -12.113  -6.610   3.481  1.00  0.00    -0.251 OA
BRANCH   11   13
ATOM     13  N2  LIG L   1     -11.415  -6.963   5.577  1.00  0.00    -0.181 N 
ATOM     14  H2  LIG L   1     -11.625  -7.209   6.555  1.00  0.00     0.184 HD
BRANCH   13   15
ATOM     15  O2  LIG L   1     -10.112  -6.954   5.004  1.00  0.00    -0.294 OA
ATOM     16  H3  LIG L   1      -9.952  -6.084   4.559  1.00  0.00     0.241 HD
ENDBRANCH   13   15
ENDBRANCH   11   13
ENDBRANCH    1   11
TORSDOF 6
ENDMDL
