MODEL 1
REMARK VINA RESULT:   -10.606      0.000      0.000
REMARK INTER + INTRA:         -15.232
REMARK INTER:                 -14.636
REMARK INTRA:                  -0.596
REMARK UNBOUND:                -0.596
REMARK Flexibility Score: inf
REMARK Active torsions [ 9 ] -> [ 9 ]
ROOT
ATOM      1  C1  LIG L   1     -16.597  -5.456  13.747  1.00  0.00     0.107 C 
ATOM      2  C2  LIG L   1     -15.350  -5.228  14.514  1.00  0.00     0.042 C 
ENDROOT
BRANCH    1    3
ATOM      3  C3  LIG L   1     -17.213  -6.715  13.894  1.00  0.00     0.147 C 
BRANCH    3    4
ATOM      4  C4  LIG L   1     -16.667  -7.744  14.681  1.00  0.00     0.239 C 
ATOM      5  O1  LIG L   1     -15.939  -8.691  14.691  1.00  0.00    -0.300 OA
ENDBRANCH    3    4
BRANCH    3    6
ATOM      6  C5  LIG L   1     -18.119  -7.184  12.885  1.00  0.00     0.044 C 
ATOM      7  C6  LIG L   1     -19.148  -8.117  12.324  1.00  0.00    -0.101 C 
ATOM      8  C7  LIG L   1     -20.031  -9.258  12.261  1.00  0.00     0.088 C 
ATOM      9  C8  LIG L   1     -21.256  -9.167  13.048  1.00  0.00     0.198 C 
ATOM     10  N1  LIG L   1     -19.823 -10.536  11.580  1.00  0.00    -0.249 N 
ATOM     11  C9  LIG L   1     -22.412  -9.689  12.288  1.00  0.00     0.180 C 
ATOM     12 C10  LIG L   1     -20.936 -11.156  10.892  1.00  0.00     0.147 C 
ATOM     13 C11  LIG L   1     -18.634 -11.255  11.621  1.00  0.00     0.242 C 
ATOM     14 C12  LIG L   1     -22.257 -11.026  11.593  1.00  0.00     0.171 C 
ATOM     15 C13  LIG L   1     -20.503 -11.907   9.722  1.00  0.00     0.022 A 
ATOM     16  O2  LIG L   1     -18.370 -12.235  10.722  1.00  0.00    -0.431 OA
ATOM     17  S1  LIG L   1     -17.736 -11.026  12.546  1.00  0.00     0.007 SA
ATOM     18 C14  LIG L   1     -21.446 -12.112   8.691  1.00  0.00     0.014 A 
ATOM     19 C15  LIG L   1     -19.205 -12.394   9.584  1.00  0.00     0.179 A 
ATOM     20 C16  LIG L   1     -21.367 -12.600   7.432  1.00  0.00    -0.026 A 
ATOM     21 C17  LIG L   1     -18.576 -13.028   8.466  1.00  0.00     0.189 A 
ATOM     22 C18  LIG L   1     -20.252 -13.104   6.767  1.00  0.00     0.047 A 
ATOM     23 C19  LIG L   1     -22.476 -12.671   6.547  1.00  0.00     0.037 C 
ATOM     24  N2  LIG L   1     -19.087 -13.245   7.265  1.00  0.00    -0.230 NA
ATOM     25  N3  LIG L   1     -17.301 -13.436   8.545  1.00  0.00    -0.279 NA
ATOM     26 C20  LIG L   1     -20.551 -13.499   5.475  1.00  0.00     0.056 C 
ATOM     27 C21  LIG L   1     -21.952 -13.235   5.316  1.00  0.00     0.011 C 
ATOM     28  H1  LIG L   1     -16.779 -13.327   9.426  1.00  0.00     0.188 HD
BRANCH    9   29
ATOM     29  O3  LIG L   1     -21.080  -9.220  14.330  1.00  0.00    -0.383 OA
ATOM     30  H2  LIG L   1     -21.765  -8.665  14.781  1.00  0.00     0.210 HD
ENDBRANCH    9   29
BRANCH   11   31
ATOM     31  O4  LIG L   1     -23.618  -9.441  12.854  1.00  0.00    -0.386 OA
ATOM     32  H3  LIG L   1     -23.530  -8.705  13.511  1.00  0.00     0.210 HD
ENDBRANCH   11   31
BRANCH   14   33
ATOM     33  O5  LIG L   1     -22.320 -12.008  12.693  1.00  0.00    -0.387 OA
ATOM     34  H4  LIG L   1     -23.159 -11.879  13.203  1.00  0.00     0.210 HD
ENDBRANCH   14   33
ENDBRANCH    3    6
ENDBRANCH    1    3
BRANCH    1   35
ATOM     35  O6  LIG L   1     -17.073  -4.614  12.890  1.00  0.00    -0.510 OA
ATOM     36  H5  LIG L   1     -18.052  -4.534  12.768  1.00  0.00     0.292 HD
ENDBRANCH    1   35
BRANCH    2   37
ATOM     37 C22  LIG L   1     -14.650  -3.951  14.291  1.00  0.00     0.186 C 
BRANCH   37   38
ATOM     38  O7  LIG L   1     -15.350  -2.813  14.002  1.00  0.00    -0.391 OA
ATOM     39  H6  LIG L   1     -15.356  -2.670  13.022  1.00  0.00     0.210 HD
ENDBRANCH   37   38
ENDBRANCH    2   37
TORSDOF 9
ENDMDL
