MODEL 1
REMARK VINA RESULT:   -15.786      0.000      0.000
REMARK INTER + INTRA:         -20.040
REMARK INTER:                 -19.016
REMARK INTRA:                  -1.024
REMARK UNBOUND:                -1.024
REMARK Flexibility Score: inf
REMARK Active torsions [ 4 ] -> [ 4 ]
ROOT
ATOM      1  C1  LIG L   1      37.384  54.909  43.583  1.00  0.00     0.004 C 
ATOM      2  C2  LIG L   1      36.075  50.339  44.945  1.00  0.00     0.008 C 
ATOM      3  C3  LIG L   1      37.302  50.101  42.754  1.00  0.00    -0.004 C 
ATOM      4  C4  LIG L   1      38.263  48.990  42.532  1.00  0.00    -0.001 C 
ATOM      5  C5  LIG L   1      36.649  49.438  43.979  1.00  0.00    -0.004 C 
ATOM      6  C6  LIG L   1      35.704  51.706  44.511  1.00  0.00    -0.005 C 
ATOM      7  C7  LIG L   1      36.098  54.593  44.503  1.00  0.00    -0.004 C 
ATOM      8  C8  LIG L   1      35.679  56.194  44.937  1.00  0.00     0.012 C 
ATOM      9  C9  LIG L   1      37.548  48.098  43.787  1.00  0.00    -0.007 C 
ATOM     10 C10  LIG L   1      37.557  51.470  42.710  1.00  0.00     0.008 C 
ATOM     11 C11  LIG L   1      38.725  48.094  44.802  1.00  0.00     0.008 C 
ATOM     12 C12  LIG L   1      34.520  54.330  44.477  1.00  0.00     0.028 C 
ATOM     13 C13  LIG L   1      34.275  51.890  44.837  1.00  0.00     0.035 C 
ATOM     14 C14  LIG L   1      37.172  54.303  42.149  1.00  0.00     0.001 C 
ATOM     15 C15  LIG L   1      35.989  53.282  42.400  1.00  0.00     0.004 C 
ATOM     16 C16  LIG L   1      33.852  53.236  45.218  1.00  0.00     0.119 C 
ATOM     17 C17  LIG L   1      36.597  52.331  43.462  1.00  0.00    -0.007 C 
ATOM     18 C18  LIG L   1      34.221  55.722  45.312  1.00  0.00     0.025 C 
ENDROOT
BRANCH    4   19
ATOM     19 C19  LIG L   1      39.022  48.180  41.626  1.00  0.00    -0.007 C 
ATOM     20 C20  LIG L   1      39.354  46.713  39.541  1.00  0.00    -0.011 C 
ATOM     21 C21  LIG L   1      38.957  46.769  41.077  1.00  0.00     0.007 C 
ATOM     22 C22  LIG L   1      40.079  48.091  39.384  1.00  0.00     0.004 C 
ATOM     23 C23  LIG L   1      39.769  48.978  40.570  1.00  0.00     0.004 C 
BRANCH   20   24
ATOM     24 C24  LIG L   1      39.515  46.024  38.100  1.00  0.00     0.000 C 
ATOM     25 C25  LIG L   1      40.624  46.766  37.338  1.00  0.00     0.004 C 
ENDBRANCH   20   24
ENDBRANCH    4   19
BRANCH   16   26
ATOM     26  O1  LIG L   1      32.771  53.481  45.894  1.00  0.00    -0.391 OA
ATOM     27  H1  LIG L   1      32.404  52.631  46.247  1.00  0.00     0.210 HD
ENDBRANCH   16   26
BRANCH   18   28
ATOM     28 C26  LIG L   1      33.088  56.545  44.705  1.00  0.00    -0.044 A 
ATOM     29 C27  LIG L   1      33.163  56.907  43.359  1.00  0.00     0.004 A 
ATOM     30 C28  LIG L   1      31.976  56.973  45.433  1.00  0.00     0.004 A 
ATOM     31 C29  LIG L   1      32.177  57.700  42.785  1.00  0.00     0.000 A 
ATOM     32 C30  LIG L   1      30.995  57.746  44.855  1.00  0.00     0.000 A 
ATOM     33 C31  LIG L   1      31.062  58.086  43.532  1.00  0.00     0.000 A 
ENDBRANCH   18   28
TORSDOF 4
ENDMDL
