MODEL 1
REMARK VINA RESULT:   -14.086      0.000      0.000
REMARK INTER + INTRA:         -14.910
REMARK INTER:                 -14.910
REMARK INTRA:                   0.000
REMARK UNBOUND:                 0.000
REMARK Flexibility Score: inf
REMARK Active torsions [ 2 ] -> [ 2 ]
ROOT
ATOM      1  C1  LIG L   1      10.195  60.643  80.395  1.00  0.00     0.147 C 
ATOM      2  C2  LIG L   1      10.172  62.973  81.156  1.00  0.00     0.034 C 
ATOM      3  C3  LIG L   1      12.570  54.868  82.422  1.00  0.00     0.348 C 
ATOM      4  C4  LIG L   1      18.613  58.096  78.746  1.00  0.00    -0.022 C 
ATOM      5  C5  LIG L   1      12.244  62.162  80.395  1.00  0.00     0.060 C 
ATOM      6  N1  LIG L   1      14.938  59.779  79.762  1.00  0.00    -0.268 N 
ATOM      7  C6  LIG L   1      11.400  65.037  80.589  1.00  0.00    -0.005 C 
ATOM      8  N2  LIG L   1      11.254  55.223  81.993  1.00  0.00    -0.067 NA
ATOM      9  C7  LIG L   1      14.063  59.032  80.546  1.00  0.00     0.188 C 
ATOM     10  C8  LIG L   1      14.629  54.854  83.558  1.00  0.00     0.363 C 
ATOM     11  C9  LIG L   1      14.074  55.445  82.326  1.00  0.00     0.131 C 
ATOM     12  N3  LIG L   1      13.585  54.429  84.405  1.00  0.00    -0.050 NA
ATOM     13 C10  LIG L   1      12.853  63.313  80.051  1.00  0.00    -0.019 C 
ATOM     14 C11  LIG L   1       9.928  54.417  83.780  1.00  0.00     0.351 C 
ATOM     15 C12  LIG L   1       7.827  59.352  80.864  1.00  0.00     0.038 C 
ATOM     16  N4  LIG L   1      11.157  53.960  84.234  1.00  0.00    -0.223 N 
ATOM     17 C13  LIG L   1      16.118  59.148  79.322  1.00  0.00     0.040 C 
ATOM     18 C14  LIG L   1      10.064  55.269  82.660  1.00  0.00     0.324 C 
ATOM     19 C15  LIG L   1      16.454  57.870  79.761  1.00  0.00    -0.019 C 
ATOM     20 C16  LIG L   1      10.430  64.271  81.063  1.00  0.00    -0.026 C 
ATOM     21  O1  LIG L   1      12.982  59.797  80.939  1.00  0.00    -0.474 OA
ATOM     22 C17  LIG L   1       7.430  57.962  80.362  1.00  0.00    -0.005 C 
ATOM     23 C18  LIG L   1      15.280  55.767  81.257  1.00  0.00     0.051 C 
ATOM     24 C19  LIG L   1      14.347  57.762  80.826  1.00  0.00     0.066 C 
ATOM     25 C20  LIG L   1       8.760  57.273  79.939  1.00  0.00     0.081 C 
ATOM     26 C21  LIG L   1      17.721  57.342  79.511  1.00  0.00     0.064 C 
ATOM     27 C22  LIG L   1      18.227  59.303  78.206  1.00  0.00    -0.002 C 
ATOM     28 C23  LIG L   1      10.869  61.906  80.701  1.00  0.00     0.034 C 
ATOM     29 C24  LIG L   1      12.618  64.570  80.078  1.00  0.00    -0.004 C 
ATOM     30 C25  LIG L   1      12.400  54.181  83.724  1.00  0.00     0.334 C 
ATOM     31 C26  LIG L   1      13.153  61.047  80.360  1.00  0.00     0.200 C 
ATOM     32 C27  LIG L   1       9.307  59.761  81.164  1.00  0.00     0.152 C 
ATOM     33  O2  LIG L   1       9.915  58.520  81.629  1.00  0.00    -0.334 OA
ATOM     34 C28  LIG L   1      14.366  61.072  79.668  1.00  0.00     0.159 C 
ATOM     35 C29  LIG L   1       6.653  57.207  81.512  1.00  0.00     0.008 C 
ATOM     36 C30  LIG L   1      15.503  57.116  80.521  1.00  0.00    -0.037 C 
ATOM     37 C31  LIG L   1      16.957  59.839  78.466  1.00  0.00     0.023 C 
ATOM     38  N5  LIG L   1       9.101  56.131  82.120  1.00  0.00    -0.208 N 
ATOM     39 C32  LIG L   1       9.526  57.222  81.287  1.00  0.00     0.300 C 
ATOM     40  H1  LIG L   1      11.124  53.368  85.077  1.00  0.00     0.292 HD
ATOM     41  H2  LIG L   1       8.101  55.983  82.319  1.00  0.00     0.294 HD
ENDROOT
BRANCH    1   42
ATOM     42  O3  LIG L   1      10.220  60.356  79.087  1.00  0.00    -0.389 OA
ATOM     43  H3  LIG L   1       9.294  60.229  78.759  1.00  0.00     0.210 HD
ENDBRANCH    1   42
BRANCH   10   44
ATOM     44  O4  LIG L   1      15.589  55.554  84.219  1.00  0.00    -0.351 OA
ATOM     45  H4  LIG L   1      16.437  55.044  84.206  1.00  0.00     0.214 HD
ENDBRANCH   10   44
TORSDOF 2
ENDMDL
